 Gaussian 16, Revision A.03,
 Gaussian 16:  ES64L-G16RevA.03 25-Dec-2016

 ---------------------
 #P UwB97X/6-311G** TD
 ---------------------

 ---------------------------------------------------
 TDDFT single-point job to assess G16 functionality.
 ---------------------------------------------------
 Symbolic Z-matrix:
 Charge =  0 Multiplicity = 6

                         Standard orientation:
 ---------------------------------------------------------------------
 Center     Atomic      Atomic             Coordinates (Angstroms)
 Number     Number       Type             X           Y           Z
 ---------------------------------------------------------------------
      1         25           0        0.003363   -0.171978    0.197232
      2          8           0        1.739072   -1.234323    0.122329
      3          8           0       -1.673881   -1.241119   -0.161404
      4          6           0        2.976563   -0.918957   -0.083624
      5          6           0        3.432390    0.416691   -0.314768
      6          6           0        3.967681   -1.937913   -0.078243
      7          6           0        4.807671    0.663978   -0.514360
      8          6           0        5.296478   -1.659103   -0.281358
      9          1           0        3.623559   -2.953495    0.088452
     10          6           0        5.739610   -0.343488   -0.503325
     11          1           0        5.125441    1.690828   -0.684098
     12          1           0        6.017742   -2.471814   -0.270854
     13          1           0        6.790926   -0.132716   -0.661984
     14          6           0       -2.925906   -0.934748   -0.267138
     15          6           0       -3.448139    0.385691   -0.089364
     16          6           0       -3.868057   -1.953738   -0.576525
     17          6           0       -4.833089    0.617807   -0.228263
     18          6           0       -5.209917   -1.690345   -0.698038
     19          1           0       -3.473147   -2.954529   -0.717792
     20          6           0       -5.716454   -0.390540   -0.523737
     21          1           0       -5.200253    1.633241   -0.092057
     22          1           0       -5.891426   -2.502458   -0.936813
     23          1           0       -6.777137   -0.191273   -0.624639
     24          6           0        2.555641    1.562740   -0.349772
     25          1           0        3.063971    2.525615   -0.504453
     26          6           0       -2.621412    1.531672    0.208281
     27          1           0       -3.155960    2.491914    0.254999
     28          7           0        1.278103    1.559333   -0.227295
     29          7           0       -1.354760    1.524705    0.406919
     30          6           0        0.553708    2.821895   -0.315569
     31          1           0        1.196478    3.680966   -0.082927
     32          1           0        0.182118    2.941868   -1.340756
     33          6           0       -0.645540    2.772625    0.634394
     34          1           0       -0.280247    2.780546    1.668213
     35          1           0       -1.289011    3.650919    0.489363
     36          8           0       -0.039578   -1.222426    2.174156
     37          1           0        0.743695   -1.757963    1.991546
     38          1           0       -0.796476   -1.803132    2.043425
 ---------------------------------------------------------------------

 SCF Done:  E(UwB97X) =  -2105.59649801     A.U. after   25 cycles

 Excitation energies and oscillator strengths:

 Excited State   1:  6.608-A      2.7267 eV  454.71 nm  f=0.0000  <S**2>=10.667
     85A -> 91A       -0.12615
     85A -> 92A        0.12144
     86A -> 91A        0.11408
     88A -> 91A       -0.26077
     88A -> 92A        0.26208
     89A -> 91A        0.21275
     89A -> 92A       -0.20984
     90A -> 91A        0.43830
     90A -> 92A       -0.11601
     82B -> 86B        0.11652
     82B -> 87B       -0.13290
     83B -> 86B       -0.12446
     84B -> 86B        0.46008
     84B -> 87B       -0.39136
     85B -> 86B       -0.22857
 This state for optimization and/or second-order correction.
 Total Energy, E(TD-HF/TD-DFT) =  -2105.49629403
 Copying the excited state density for this state as the 1-particle RhoCI density.

 Excited State   2:  6.608-A      2.7488 eV  451.05 nm  f=0.0000  <S**2>=10.666
     85A -> 91A        0.11085
     86A -> 92A        0.14019
     88A -> 91A        0.24376
     88A -> 92A        0.18190
     89A -> 91A       -0.21660
     89A -> 92A       -0.15981
     90A -> 91A        0.19344
     90A -> 92A        0.48189
     82B -> 86B       -0.11840
     83B -> 87B       -0.14192
     84B -> 86B       -0.21809
     85B -> 86B       -0.38475
     85B -> 87B       -0.47616

 Excited State   3:  6.627-A      3.3655 eV  368.40 nm  f=0.0000  <S**2>=10.729
     85A -> 91A       -0.28725
     85A -> 92A        0.23095
     85A -> 93A        0.11139
     86A -> 91A        0.27889
     86A -> 92A       -0.12302
     86A -> 93A       -0.12210
     88A -> 93A       -0.21209
     88A -> 94A        0.10594
     89A -> 93A        0.14985
     90A -> 91A       -0.11085
     90A -> 93A        0.23347
     82B -> 86B        0.27696
     82B -> 87B       -0.27718
     82B -> 89B       -0.14201
     83B -> 86B       -0.25234
     83B -> 87B        0.14108
     83B -> 89B        0.11713
     84B -> 86B       -0.14422
     84B -> 87B        0.15037
     84B -> 89B        0.34635
     84B -> 90B       -0.11849

 The electronic state is 6-A.
 Alpha  occ. eigenvalues -- -235.28248 -27.31073 -23.39725 -23.39321 -23.39119
 Alpha  occ. eigenvalues --  -19.21272 -19.14332 -19.14082 -14.40573 -14.40372
 Alpha  occ. eigenvalues --  -10.32320 -10.32204 -10.31434 -10.31260 -10.30487
 Alpha  occ. eigenvalues --  -10.30406 -10.26122 -10.25979 -10.25762 -10.25597
 Alpha  occ. eigenvalues --  -10.25213 -10.25054 -10.24035 -10.23898 -10.23623
 Alpha  occ. eigenvalues --  -10.23436  -3.32587  -2.20298  -2.19723  -2.19310
 Alpha  occ. eigenvalues --   -1.16723  -1.12435  -1.12217  -1.08779  -1.06578
 Alpha  occ. eigenvalues --   -0.97637  -0.97310  -0.92455  -0.89144  -0.86982
 Alpha  occ. eigenvalues --   -0.84901  -0.84421  -0.79337  -0.75639  -0.73317
 Alpha  occ. eigenvalues --   -0.72113  -0.71804  -0.69423  -0.67564  -0.66613
 Alpha  occ. eigenvalues --   -0.63365  -0.62909  -0.62351  -0.60942  -0.59401
 Alpha  occ. eigenvalues --   -0.58273  -0.57023  -0.55678  -0.55334  -0.54605
 Alpha  occ. eigenvalues --   -0.54389  -0.54156  -0.53767  -0.52832  -0.52161
 Alpha  occ. eigenvalues --   -0.51747  -0.50995  -0.48927  -0.48284  -0.46280
 Alpha  occ. eigenvalues --   -0.46155  -0.45863  -0.45535  -0.45090  -0.44747
 Alpha  occ. eigenvalues --   -0.43919  -0.43583  -0.42964  -0.42752  -0.40630
 Alpha  occ. eigenvalues --   -0.38602  -0.38129  -0.37261  -0.36292  -0.33555
 Alpha  occ. eigenvalues --   -0.33401  -0.31571  -0.28724  -0.27995  -0.27708
 Alpha virt. eigenvalues --    0.02353   0.03073   0.09759   0.10018   0.10603
 Alpha virt. eigenvalues --    0.12046   0.12712   0.13583   0.13895   0.14162
 Alpha virt. eigenvalues --    0.15168   0.15778   0.15970   0.17103   0.17967

  Beta  occ. eigenvalues -- -235.28310 -27.23169 -23.33379 -23.32963 -23.32799
  Beta  occ. eigenvalues --  -19.21158 -19.14203 -19.13941 -14.40499 -14.40291
  Beta  occ. eigenvalues --  -10.32307 -10.32192 -10.31426 -10.31251 -10.30486
  Beta  occ. eigenvalues --  -10.30405 -10.26122 -10.25980 -10.25761 -10.25596
  Beta  occ. eigenvalues --  -10.25208 -10.25048 -10.24032 -10.23895 -10.23617
  Beta  occ. eigenvalues --  -10.23429  -3.11756  -1.98067  -1.97210  -1.96757
  Beta  occ. eigenvalues --   -1.16453  -1.12129  -1.11873  -1.08625  -1.06414
  Beta  occ. eigenvalues --   -0.97598  -0.97269  -0.92409  -0.89112  -0.86947
  Beta  occ. eigenvalues --   -0.84840  -0.84355  -0.79271  -0.75542  -0.73191
  Beta  occ. eigenvalues --   -0.72067  -0.71768  -0.69220  -0.67380  -0.66458
  Beta  occ. eigenvalues --   -0.63173  -0.62768  -0.62243  -0.60667  -0.59148
  Beta  occ. eigenvalues --   -0.58040  -0.56791  -0.55492  -0.55196  -0.54286
  Beta  occ. eigenvalues --   -0.54189  -0.53411  -0.53166  -0.52709  -0.52052
  Beta  occ. eigenvalues --   -0.51593  -0.50790  -0.48783  -0.46749  -0.46087
  Beta  occ. eigenvalues --   -0.45621  -0.45340  -0.45153  -0.44597  -0.43808
  Beta  occ. eigenvalues --   -0.43399  -0.42543  -0.42334  -0.40859  -0.35960
  Beta  occ. eigenvalues --   -0.35328  -0.33835  -0.33407  -0.28589  -0.28393
  Beta virt. eigenvalues --    0.01624   0.03043   0.07517   0.09476   0.09824
  Beta virt. eigenvalues --    0.11869   0.11991   0.12340   0.13050   0.13229
  Beta virt. eigenvalues --    0.14228   0.14378   0.14929   0.15080   0.15645

 Mulliken charges and spin densities:
               1          2
     1  Mn   1.470905   4.782912
     2  O   -0.666432   0.033305
     3  O   -0.657859   0.037683
     4  C    0.275869   0.005184
     5  C   -0.206519   0.004816
     6  C   -0.159398   0.004121
     7  C   -0.080700  -0.000224
     8  C   -0.080523   0.001128
     9  H    0.106674   0.000201
    10  C   -0.143886   0.003146
    11  H    0.098421  -0.000099
    12  H    0.109014   0.000102
    13  H    0.101262  -0.000156
    14  C    0.261884   0.004116
    15  C   -0.207023   0.006012
    16  C   -0.157182   0.005537
    17  C   -0.080549  -0.001189
    18  C   -0.080346   0.000201
    19  H    0.108829   0.000192
    20  C   -0.144977   0.004354
    21  H    0.097946  -0.000046
    22  H    0.108365   0.000141
    23  H    0.100600  -0.000211
    24  C    0.197455   0.014321
    25  H    0.095004   0.004655
    26  C    0.188553   0.013451
    27  H    0.093705   0.005214
    28  N   -0.544389   0.016015
    29  N   -0.532790   0.018139
    30  C   -0.082648   0.003104
    31  H    0.113866   0.001175
    32  H    0.137400   0.000241
    33  C   -0.102016   0.002865
    34  H    0.140423   0.000764
    35  H    0.108472   0.002230
    36  O   -0.562209   0.024685
    37  H    0.288114   0.000487
    38  H    0.286684   0.001429
 Sum of Mulliken charges =  -0.00000   5.00000

 Dipole moment (field-independent basis, Debye):
    X=              0.0704    Y=              3.8509    Z=              0.7430  Tot=              3.9225
 Quadrupole moment (field-independent basis, Debye-Ang):
   XX=           -134.4840   YY=           -117.8970   ZZ=           -140.9552
   XY=             -0.1270   XZ=             -1.0643   YZ=             -3.9129

 Normal termination of Gaussian 16 at Wed Sep 27 15:12:56 2017.
